 Gaussian 16, Revision B.01,
 Gaussian 16:  ES64L-G16RevB.01 20-Dec-2017

 ---------------------------------------------------------------
 #p M062X/may-cc-pVTZ freq=hpmodes int(grid=ultrafine) scf=tight
 ---------------------------------------------------------------

 ---------------------------------------------------
 point on IRC for diimide + ethylene with NH = 1.065
 ---------------------------------------------------
 Symbolic Z-matrix:
 Charge =  0 Multiplicity = 1

                         Standard orientation:
 ---------------------------------------------------------------------
 Center     Atomic      Atomic             Coordinates (Angstroms)
 Number     Number       Type             X           Y           Z
 ---------------------------------------------------------------------
      1          7           0       -0.000005    1.488087    0.604533
      2          7           0       -0.000005    1.488087   -0.604533
      3          1           0        0.000080    0.494252   -0.986797
      4          1           0        0.000080    0.494252    0.986797
      5          6           0       -0.000005   -1.348636   -0.668391
      6          6           0       -0.000005   -1.348636    0.668391
      7          1           0       -0.921838   -1.409425    1.232905
      8          1           0        0.921819   -1.409623   -1.232892
      9          1           0       -0.921838   -1.409425   -1.232905
     10          1           0        0.921819   -1.409623    1.232892
 ---------------------------------------------------------------------

 SCF Done:  E(RM062X) =  -189.205262261     A.U. after   11 cycles

 The electronic state is 1-A'.
 Alpha  occ. eigenvalues --  -14.80863 -14.80760 -10.56363 -10.56253  -1.16227
 Alpha  occ. eigenvalues --   -0.89149  -0.76281  -0.68717  -0.64310  -0.56870
 Alpha  occ. eigenvalues --   -0.51141  -0.47312  -0.46672  -0.44395  -0.36065
 Alpha  occ. eigenvalues --   -0.30995
 Alpha virt. eigenvalues --   -0.00297   0.00129   0.01299   0.01785   0.02641
 Alpha virt. eigenvalues --    0.04075   0.06184   0.06233   0.07197   0.09318
 Alpha virt. eigenvalues --    0.09685   0.10669   0.12963   0.14067   0.15178

 Mulliken charges:
               1
     1  N   -0.130583
     2  N   -0.130583
     3  H    0.148149
     4  H    0.148149
     5  C   -0.357202
     6  C   -0.357202
     7  H    0.169817
     8  H    0.169820
     9  H    0.169817
    10  H    0.169820
 Sum of Mulliken charges =  -0.00000

 Dipole moment (field-independent basis, Debye):
    X=              0.0002    Y=             -3.0045    Z=              0.0000  Tot=              3.0045
 Quadrupole moment (field-independent basis, Debye-Ang):
   XX=            -24.3681   YY=            -34.2375   ZZ=            -25.0282
   XY=             -0.0000   XZ=              0.0000   YZ=             -0.0000

  Exact polarizability:  32.678  -0.001  56.839   0.000  -0.000  49.372
 Approx polarizability:  39.104  -0.001  62.635   0.000   0.000  68.090

                      1                      2                      3
                     A"                     A'                     A'
 Frequencies --    135.2790               174.3857               274.7596
 Red. masses --      3.0460                 6.5936                 1.0485
 Frc consts  --      0.0328                 0.1181                 0.0466
 IR Inten    --      0.0000                10.1360                33.3018

                      4                      5                      6
                     A"                     A"                     A'
 Frequencies --    298.3438               403.7915               642.6673
 Red. masses --      2.8495                 3.1422                 1.0351
 Frc consts  --      0.1494                 0.3019                 0.2519
 IR Inten    --      0.1866                 4.8310                81.7547

                      7                      8                      9
                     A'                     A'                     A"
 Frequencies --    828.4178               949.7625               993.3724
 Red. masses --      1.0408                 1.1192                 1.4503
 Frc consts  --      0.4209                 0.5948                 0.8432
 IR Inten    --      0.2119                17.8954                 1.6462

                     10                     11                     12
                     A"                     A"                     A"
 Frequencies --   1061.5673              1237.5815              1305.2396
 Red. masses --      1.0314                 1.4951                 1.1640
 Frc consts  --      0.6848                 1.3492                 1.1684
 IR Inten    --      0.0000                 0.0000                 0.0000

                     13                     14                     15
                     A'                     A'                     A"
 Frequencies --   1344.5339              1407.9826              1469.3909
 Red. masses --      1.2874                 1.0424                 1.1131
 Frc consts  --      1.3713                 1.2176                 1.4160
 IR Inten    --      1.5982                52.1411                 7.0441

                     16                     17                     18
                     A"                     A'                     A'
 Frequencies --   1536.1511              1651.6790              1767.3776
 Red. masses --      1.3227                 2.6728                11.8538
 Frc consts  --      1.8390                 4.2961                21.8155
 IR Inten    --     43.8889                48.8243                90.7663

                     19                     20                     21
                     A'                     A"                     A"
 Frequencies --   2678.2142              2934.1191              3153.5565
 Red. masses --      1.0802                 1.0609                 1.0479
 Frc consts  --      4.5651                 5.3812                 6.1402
 IR Inten    --     95.5681                 2.3627                 1.8663

                     22                     23                     24
                     A'                     A"                     A'
 Frequencies --   3167.0576              3232.5434              3256.9827
 Red. masses --      1.0718                 1.1161                 1.1178
 Frc consts  --      6.3339                 6.8713                 6.9863
 IR Inten    --      2.3293                 0.0000                 3.7055

 - Thermochemistry -
 -------------------
 Temperature   298.150 Kelvin.  Pressure   1.00000 Atm.
 Atom     1 has atomic number  7 and mass  14.00307

 Molecular mass:    58.05310 amu.
 Principal axes and moments of inertia in atomic units:
                           1         2         3
     Eigenvalues --   115.96400 418.62796 510.12537
           X           -0.00000   0.00000   1.00000
           Y            1.00000   0.00000   0.00000
           Z           -0.00000   1.00000  -0.00000
 This molecule is an asymmetric top.
 Rotational symmetry number  1.
 Rotational temperatures (Kelvin)      0.74690     0.20690     0.16979
 Rotational constants (GHZ):          15.56294     4.31109     3.53784
 Zero-point vibrational energy     214758.1 (Joules/Mol)
                                   51.32843 (Kcal/Mol)
 Warning -- explicit consideration of   5 degrees of freedom as
           vibrations may cause significant error
 Vibrational temperatures:    194.64   250.90   395.32   429.25   580.97
          (Kelvin)            924.65  1191.91  1366.50  1429.24  1527.36
                             1780.60  1877.95  1934.48  2025.77  2114.13
                             2210.18  2376.40  2542.86  3853.35  4221.54
                             4537.26  4556.69  4650.91  4686.07

 Zero-point correction=                           0.081797 (Hartree/Particle)
 Thermal correction to Energy=                    0.087457
 Thermal correction to Enthalpy=                  0.088402
 Thermal correction to Gibbs Free Energy=         0.053717
 Sum of electronic and zero-point Energies=           -189.123465
 Sum of electronic and thermal Energies=              -189.117805
 Sum of electronic and thermal Enthalpies=            -189.116861
 Sum of electronic and thermal Free Energies=         -189.151546

                     E (Thermal)             CV                S
                      KCal/Mol        Cal/Mol-Kelvin    Cal/Mol-Kelvin
 Total                   54.880             18.076             73.001
 Electronic               0.000              0.000              0.000
 Translational            0.889              2.981             38.097
 Rotational               0.889              2.981             24.719
 Vibrational             53.103             12.114             10.185
 Vibration     1          0.613              1.918              2.870
 Vibration     2          0.627              1.874              2.388
 Vibration     3          0.677              1.720              1.566
 Vibration     4          0.691              1.677              1.426
 Vibration     5          0.769              1.462              0.949

 Normal termination of Gaussian 16 at Thu Apr  6 18:53:35 2023.
